phonopy:
  version: "2.19.1"
  frequency_unit_conversion_factor: 15.633302
  symmetry_tolerance: 1.00000e-05
  configuration:
    fc_symmetry: ".TRUE."
    modulation: "2 2 2, 0.5 0.5 -0.5 1 1, 0.5 0.5 -0.5 2 1"

physical_unit:
  atomic_mass: "AMU"
  length: "angstrom"
  force_constants: "eV/angstrom^2"

space_group:
  type: "P6_3/mmc"
  number: 194
  Hall_symbol: "-P 6c 2c"

supercell_matrix:
- [   2,   0,   0 ]
- [   0,   2,   0 ]
- [   0,   0,   2 ]

primitive_cell:
  lattice:
  - [     4.119395937730416,     0.000000000000000,     0.000000000000000 ] # a
  - [    -2.059697968865207,     3.567501530320961,     0.000000000000000 ] # b
  - [     0.000000000000000,     0.000000000000000,     7.968936980462616 ] # c
  points:
  - symbol: Li # 1
    coordinates: [  0.000000000000000,  0.000000000000000,  0.000000000000000 ]
    mass: 6.941000
  - symbol: Li # 2
    coordinates: [  0.000000000000000,  0.000000000000000,  0.500000000000000 ]
    mass: 6.941000
  - symbol: Be # 3
    coordinates: [  0.666666666666664,  0.333333333333336,  0.250000000000000 ]
    mass: 9.012182
  - symbol: Be # 4
    coordinates: [  0.333333333333336,  0.666666666666664,  0.750000000000000 ]
    mass: 9.012182
  - symbol: Sb # 5
    coordinates: [  0.333333333333336,  0.666666666666664,  0.250000000000000 ]
    mass: 121.760000
  - symbol: Sb # 6
    coordinates: [  0.666666666666664,  0.333333333333336,  0.750000000000000 ]
    mass: 121.760000
  reciprocal_lattice: # without 2pi
  - [     0.242754038484329,     0.140154109465796,     0.000000000000000 ] # a*
  - [     0.000000000000000,     0.280308218931593,     0.000000000000000 ] # b*
  - [     0.000000000000000,     0.000000000000000,     0.125487251618590 ] # c*

unit_cell:
  lattice:
  - [     4.119395937730416,     0.000000000000000,     0.000000000000000 ] # a
  - [    -2.059697968865207,     3.567501530320961,     0.000000000000000 ] # b
  - [     0.000000000000000,     0.000000000000000,     7.968936980462616 ] # c
  points:
  - symbol: Li # 1
    coordinates: [  0.000000000000000,  0.000000000000000,  0.000000000000000 ]
    mass: 6.941000
    reduced_to: 1
  - symbol: Li # 2
    coordinates: [  0.000000000000000,  0.000000000000000,  0.500000000000000 ]
    mass: 6.941000
    reduced_to: 2
  - symbol: Be # 3
    coordinates: [  0.666666666666664,  0.333333333333336,  0.250000000000000 ]
    mass: 9.012182
    reduced_to: 3
  - symbol: Be # 4
    coordinates: [  0.333333333333336,  0.666666666666664,  0.750000000000000 ]
    mass: 9.012182
    reduced_to: 4
  - symbol: Sb # 5
    coordinates: [  0.333333333333336,  0.666666666666664,  0.250000000000000 ]
    mass: 121.760000
    reduced_to: 5
  - symbol: Sb # 6
    coordinates: [  0.666666666666664,  0.333333333333336,  0.750000000000000 ]
    mass: 121.760000
    reduced_to: 6

supercell:
  lattice:
  - [     8.238791875460832,     0.000000000000000,     0.000000000000000 ] # a
  - [    -4.119395937730414,     7.135003060641922,     0.000000000000000 ] # b
  - [     0.000000000000000,     0.000000000000000,    15.937873960925232 ] # c
  points:
  - symbol: Li # 1
    coordinates: [  0.000000000000000,  0.000000000000000,  0.000000000000000 ]
    mass: 6.941000
    reduced_to: 1
  - symbol: Li # 2
    coordinates: [  0.500000000000000,  0.000000000000000,  0.000000000000000 ]
    mass: 6.941000
    reduced_to: 1
  - symbol: Li # 3
    coordinates: [  0.000000000000000,  0.500000000000000,  0.000000000000000 ]
    mass: 6.941000
    reduced_to: 1
  - symbol: Li # 4
    coordinates: [  0.500000000000000,  0.500000000000000,  0.000000000000000 ]
    mass: 6.941000
    reduced_to: 1
  - symbol: Li # 5
    coordinates: [  0.000000000000000,  0.000000000000000,  0.500000000000000 ]
    mass: 6.941000
    reduced_to: 1
  - symbol: Li # 6
    coordinates: [  0.500000000000000,  0.000000000000000,  0.500000000000000 ]
    mass: 6.941000
    reduced_to: 1
  - symbol: Li # 7
    coordinates: [  0.000000000000000,  0.500000000000000,  0.500000000000000 ]
    mass: 6.941000
    reduced_to: 1
  - symbol: Li # 8
    coordinates: [  0.500000000000000,  0.500000000000000,  0.500000000000000 ]
    mass: 6.941000
    reduced_to: 1
  - symbol: Li # 9
    coordinates: [  0.000000000000000,  0.000000000000000,  0.250000000000000 ]
    mass: 6.941000
    reduced_to: 9
  - symbol: Li # 10
    coordinates: [  0.500000000000000,  0.000000000000000,  0.250000000000000 ]
    mass: 6.941000
    reduced_to: 9
  - symbol: Li # 11
    coordinates: [  0.000000000000000,  0.500000000000000,  0.250000000000000 ]
    mass: 6.941000
    reduced_to: 9
  - symbol: Li # 12
    coordinates: [  0.500000000000000,  0.500000000000000,  0.250000000000000 ]
    mass: 6.941000
    reduced_to: 9
  - symbol: Li # 13
    coordinates: [  0.000000000000000,  0.000000000000000,  0.750000000000000 ]
    mass: 6.941000
    reduced_to: 9
  - symbol: Li # 14
    coordinates: [  0.500000000000000,  0.000000000000000,  0.750000000000000 ]
    mass: 6.941000
    reduced_to: 9
  - symbol: Li # 15
    coordinates: [  0.000000000000000,  0.500000000000000,  0.750000000000000 ]
    mass: 6.941000
    reduced_to: 9
  - symbol: Li # 16
    coordinates: [  0.500000000000000,  0.500000000000000,  0.750000000000000 ]
    mass: 6.941000
    reduced_to: 9
  - symbol: Be # 17
    coordinates: [  0.333333333333332,  0.166666666666668,  0.125000000000000 ]
    mass: 9.012182
    reduced_to: 17
  - symbol: Be # 18
    coordinates: [  0.833333333333332,  0.166666666666668,  0.125000000000000 ]
    mass: 9.012182
    reduced_to: 17
  - symbol: Be # 19
    coordinates: [  0.333333333333332,  0.666666666666668,  0.125000000000000 ]
    mass: 9.012182
    reduced_to: 17
  - symbol: Be # 20
    coordinates: [  0.833333333333332,  0.666666666666668,  0.125000000000000 ]
    mass: 9.012182
    reduced_to: 17
  - symbol: Be # 21
    coordinates: [  0.333333333333332,  0.166666666666668,  0.625000000000000 ]
    mass: 9.012182
    reduced_to: 17
  - symbol: Be # 22
    coordinates: [  0.833333333333332,  0.166666666666668,  0.625000000000000 ]
    mass: 9.012182
    reduced_to: 17
  - symbol: Be # 23
    coordinates: [  0.333333333333332,  0.666666666666668,  0.625000000000000 ]
    mass: 9.012182
    reduced_to: 17
  - symbol: Be # 24
    coordinates: [  0.833333333333332,  0.666666666666668,  0.625000000000000 ]
    mass: 9.012182
    reduced_to: 17
  - symbol: Be # 25
    coordinates: [  0.166666666666668,  0.333333333333332,  0.375000000000000 ]
    mass: 9.012182
    reduced_to: 25
  - symbol: Be # 26
    coordinates: [  0.666666666666668,  0.333333333333332,  0.375000000000000 ]
    mass: 9.012182
    reduced_to: 25
  - symbol: Be # 27
    coordinates: [  0.166666666666668,  0.833333333333332,  0.375000000000000 ]
    mass: 9.012182
    reduced_to: 25
  - symbol: Be # 28
    coordinates: [  0.666666666666668,  0.833333333333332,  0.375000000000000 ]
    mass: 9.012182
    reduced_to: 25
  - symbol: Be # 29
    coordinates: [  0.166666666666668,  0.333333333333332,  0.875000000000000 ]
    mass: 9.012182
    reduced_to: 25
  - symbol: Be # 30
    coordinates: [  0.666666666666668,  0.333333333333332,  0.875000000000000 ]
    mass: 9.012182
    reduced_to: 25
  - symbol: Be # 31
    coordinates: [  0.166666666666668,  0.833333333333332,  0.875000000000000 ]
    mass: 9.012182
    reduced_to: 25
  - symbol: Be # 32
    coordinates: [  0.666666666666668,  0.833333333333332,  0.875000000000000 ]
    mass: 9.012182
    reduced_to: 25
  - symbol: Sb # 33
    coordinates: [  0.166666666666668,  0.333333333333332,  0.125000000000000 ]
    mass: 121.760000
    reduced_to: 33
  - symbol: Sb # 34
    coordinates: [  0.666666666666668,  0.333333333333332,  0.125000000000000 ]
    mass: 121.760000
    reduced_to: 33
  - symbol: Sb # 35
    coordinates: [  0.166666666666668,  0.833333333333332,  0.125000000000000 ]
    mass: 121.760000
    reduced_to: 33
  - symbol: Sb # 36
    coordinates: [  0.666666666666668,  0.833333333333332,  0.125000000000000 ]
    mass: 121.760000
    reduced_to: 33
  - symbol: Sb # 37
    coordinates: [  0.166666666666668,  0.333333333333332,  0.625000000000000 ]
    mass: 121.760000
    reduced_to: 33
  - symbol: Sb # 38
    coordinates: [  0.666666666666668,  0.333333333333332,  0.625000000000000 ]
    mass: 121.760000
    reduced_to: 33
  - symbol: Sb # 39
    coordinates: [  0.166666666666668,  0.833333333333332,  0.625000000000000 ]
    mass: 121.760000
    reduced_to: 33
  - symbol: Sb # 40
    coordinates: [  0.666666666666668,  0.833333333333332,  0.625000000000000 ]
    mass: 121.760000
    reduced_to: 33
  - symbol: Sb # 41
    coordinates: [  0.333333333333332,  0.166666666666668,  0.375000000000000 ]
    mass: 121.760000
    reduced_to: 41
  - symbol: Sb # 42
    coordinates: [  0.833333333333332,  0.166666666666668,  0.375000000000000 ]
    mass: 121.760000
    reduced_to: 41
  - symbol: Sb # 43
    coordinates: [  0.333333333333332,  0.666666666666668,  0.375000000000000 ]
    mass: 121.760000
    reduced_to: 41
  - symbol: Sb # 44
    coordinates: [  0.833333333333332,  0.666666666666668,  0.375000000000000 ]
    mass: 121.760000
    reduced_to: 41
  - symbol: Sb # 45
    coordinates: [  0.333333333333332,  0.166666666666668,  0.875000000000000 ]
    mass: 121.760000
    reduced_to: 41
  - symbol: Sb # 46
    coordinates: [  0.833333333333332,  0.166666666666668,  0.875000000000000 ]
    mass: 121.760000
    reduced_to: 41
  - symbol: Sb # 47
    coordinates: [  0.333333333333332,  0.666666666666668,  0.875000000000000 ]
    mass: 121.760000
    reduced_to: 41
  - symbol: Sb # 48
    coordinates: [  0.833333333333332,  0.666666666666668,  0.875000000000000 ]
    mass: 121.760000
    reduced_to: 41
