48   
3    

1    
  0.0045920585458297   0.0000000000000000   0.0088832988417407
  -0.0032112900    0.0000011900   -0.0110322200
   0.0003532200    0.0003130100   -0.0013145000
  -0.0002452900   -0.0003457200   -0.0014553600
   0.0002984800    0.0000324400   -0.0011745600
   0.0000437700    0.0000000900    0.0001625900
  -0.0000585800    0.0000924400    0.0002693700
  -0.0000630200   -0.0000026400    0.0002279600
   0.0000969200   -0.0000897700    0.0003106900
  -0.0001102800    0.0000002400    0.0008950700
   0.0001205400    0.0003380100    0.0005249900
  -0.0003905500   -0.0002952900    0.0006778400
   0.0001950600   -0.0000432400    0.0003727400
  -0.0001084200   -0.0000000600    0.0008889400
   0.0001203900    0.0003409200    0.0005242200
  -0.0003921300   -0.0002957700    0.0006753500
   0.0001982900   -0.0000448300    0.0003724800
   0.0013960000    0.0010960700    0.0008983100
  -0.0005996700   -0.0001200700   -0.0000875700
   0.0011291000   -0.0000884200   -0.0012942600
  -0.0006548800   -0.0012387200    0.0004026900
   0.0003112100    0.0000067500    0.0001061500
   0.0000132200   -0.0000126000    0.0003856800
   0.0001359800   -0.0000886500    0.0001066100
   0.0001457500   -0.0002606300    0.0002461700
  -0.0001626100   -0.0000818300    0.0002452100
  -0.0001713400    0.0000885100    0.0001077100
  -0.0002932000    0.0001643400    0.0003856200
   0.0000018800    0.0001837100    0.0001053000
  -0.0009541000   -0.0010503100    0.0003985600
   0.0008169300    0.0000882100   -0.0013051500
  -0.0009099600    0.0000628000   -0.0000816200
   0.0010594600    0.0012505800    0.0008734500
  -0.0001576700    0.0017132100    0.0017016600
   0.0000196900    0.0000527400    0.0004887000
   0.0018391200   -0.0010999100    0.0022400600
  -0.0010509300   -0.0004627600    0.0011763800
   0.0000346800    0.0001449600   -0.0003371600
  -0.0002980800    0.0000529100   -0.0007629900
   0.0000140000    0.0000649700   -0.0003405000
  -0.0001457200   -0.0000511000   -0.0003344300
   0.0000374000   -0.0001576000   -0.0003348200
   0.0001975900   -0.0000408900   -0.0003407400
  -0.0001144000   -0.0000530500   -0.0007597700
   0.0002185600    0.0000396000   -0.0003380900
  -0.0008633000   -0.0005704100    0.0011870300
   0.0019228900   -0.0011440100    0.0021655900
   0.0002021600   -0.0000528400    0.0004880800
   0.0000331200    0.0015634300    0.0016825600

17   
  0.0045920585458297   0.0000000000000000   0.0088832988417407
   0.0011119100    0.0011326400    0.0008322700
  -0.0007520400   -0.0000565700   -0.0001756100
   0.0009269000    0.0000005000   -0.0013634600
  -0.0008501000   -0.0010785900    0.0003313000
  -0.0003121400   -0.0001479300    0.0002463000
   0.0002346700   -0.0001670200    0.0000927600
  -0.0000644700    0.0000001200    0.0000285700
  -0.0000553400    0.0003160100    0.0001695400
  -0.0007454000    0.0000619300   -0.0002014300
   0.0011440000   -0.0011531000    0.0008400700
   0.0009249800    0.0000004700   -0.0013891400
  -0.0008528000    0.0010881000    0.0003167300
   0.0002296500    0.0001647200    0.0000926300
  -0.0003061800    0.0001450200    0.0002454900
  -0.0000644600    0.0000002300    0.0000332100
  -0.0000551400   -0.0003090600    0.0001688300
  -0.0404870100   -0.0003327100   -0.0037760000
   0.0030840700   -0.0001005600    0.0019299500
  -0.0009674000   -0.0024218300    0.0019074400
  -0.0009228000    0.0022582800    0.0019392200
   0.0001363800   -0.0000894700    0.0004321700
   0.0000630500   -0.0000910200   -0.0000127500
   0.0001259800   -0.0000522400   -0.0000133600
   0.0001215300   -0.0001221100   -0.0000136900
  -0.0009103300    0.0006671000   -0.0000837100
   0.0006612500    0.0004193900    0.0007231100
   0.0000902800   -0.0008181700    0.0003188700
  -0.0004361300    0.0000892200    0.0001462300
   0.0006468300   -0.0002321600    0.0007221400
  -0.0008978700   -0.0004813400   -0.0000805300
   0.0000907800    0.0009812000    0.0003214500
  -0.0004366600    0.0000895600    0.0001488500
   0.0188588600   -0.0090094600    0.0003282900
   0.0189665900    0.0092198300    0.0001831400
   0.0031269800    0.0001896400    0.0002580600
  -0.0004431000    0.0000513500    0.0005653800
  -0.0001180400   -0.0000406500   -0.0005202600
  -0.0001242400    0.0001439900   -0.0005189500
  -0.0002810000    0.0000565000   -0.0005195200
  -0.0000347300    0.0000528300   -0.0004930100
   0.0001508600   -0.0000527800   -0.0017731500
  -0.0003518200   -0.0001362300   -0.0001073400
   0.0000671600    0.0001883000    0.0001320500
  -0.0000781400   -0.0002115700   -0.0003466000
   0.0001463700   -0.0000528400   -0.0017296900
  -0.0003518600    0.0000305000   -0.0001120900
  -0.0000766400    0.0001051800   -0.0003524500
   0.0000667800   -0.0002951900    0.0001286900

33   
  0.0045920585458297   0.0000000000000000   0.0088832988417407
  -0.0000567900    0.0011178700    0.0016817400
   0.0001091800    0.0000000200    0.0004890800
   0.0013978600   -0.0008403900    0.0023826300
  -0.0005243600   -0.0002705000    0.0009643500
   0.0001252300   -0.0000069100   -0.0003378200
  -0.0002078000    0.0000002100   -0.0007588700
   0.0000189200    0.0000616200   -0.0002964700
   0.0000304800   -0.0000546900   -0.0003787700
  -0.0000717800   -0.0011642300    0.0017029200
   0.0001091200    0.0000002300    0.0004911000
  -0.0005322600    0.0002650000    0.0009530200
   0.0014988700    0.0009064900    0.0024700100
   0.0001244900    0.0000059200   -0.0003383600
  -0.0002066000    0.0000000500   -0.0007584100
   0.0000295400    0.0000545600   -0.0003799500
   0.0000191300   -0.0000608700   -0.0002974900
   0.0192758100   -0.0092667000    0.0002342200
   0.0191270300    0.0089621700    0.0004320400
   0.0034186500   -0.0001849700    0.0003338000
  -0.0001538100   -0.0000893100    0.0006352300
   0.0001718100   -0.0001817200   -0.0004425700
   0.0001702500    0.0000032700   -0.0004416400
   0.0000111400   -0.0000873500   -0.0004411400
   0.0002547500   -0.0000887500   -0.0004236000
  -0.0000518100    0.0000883600   -0.0016841700
  -0.0005538400   -0.0004499500   -0.0000328700
   0.0002601200    0.0005604400    0.0000051200
  -0.0006719200    0.0001586900   -0.0000692600
  -0.0000520700    0.0000878500   -0.0016602600
  -0.0005529900    0.0006238100   -0.0000344600
  -0.0006700400    0.0000211000   -0.0000723900
   0.0002579600   -0.0003779100    0.0000018300
  -0.0495782700    0.0002641100   -0.0155326500
   0.0047170800    0.0000499000   -0.0010635000
   0.0000950900   -0.0026143000   -0.0010536800
   0.0000927400    0.0027240900   -0.0010712400
  -0.0002155800    0.0000536400    0.0004206100
   0.0000328900    0.0000548900    0.0009502700
  -0.0000485100    0.0000046700    0.0009513300
  -0.0000459000    0.0000975500    0.0009504700
   0.0017240300   -0.0009780500    0.0023133800
  -0.0006774900   -0.0005150300    0.0010691600
   0.0001224000    0.0013322000    0.0016891500
   0.0002598200   -0.0000527800    0.0007044100
  -0.0006693900    0.0004039900    0.0010642200
   0.0017041500    0.0008595700    0.0022884000
   0.0001229200   -0.0014249600    0.0016795900
   0.0002597500   -0.0000528700    0.0007114900
